| ex3 - Series MOSFET example with parallel MOSFET netlist.
|
[IBIS Ver] 3.2
[File rev] 0
[Date] April 1, 2004
[Source] From MegaFLOPS Inc. layout and silicon models.
[Notes] Demonstrates [Series MOSFET].
[Disclaimer] Demonstration purposes only.
[Copyright] Copyright 2004 MegaFLOPS Inc.
[Cleanup]
[Spice type] hspice
[Temperature range] 27 100 0
[Voltage range] 3.3 3 3.6
[Sim time] 3ns
[Vil] 0 0 0
[Vih] 3.3 3 3.6
[Rload] 500
[R_pkg] 2.0m 1.0m 4.0m
[L_pkg] 0.2nH 0.1nH 0.4nH
[C_pkg] 2pF 1pF 4pF

[Component] Series MOSFET Test
[Manufacturer] MegaFLOPS Inc.

[Spice file] parallel_mosfet.sp

[Pin]
1 pin1 pin1 series_model
2 pin2 pin2 series_model
gnd gnd gnd GND
vdd vdd vdd POWER

[Model] series_model
[Model type] Series_switch
[On]
[Series MOSFET]
[Vds] 0.5
[Vds] 1.0
[Off]
[R series] 1M NA NA