[IBIS Ver]	 7.1	
[File name]	 invchain_test_0615_v5_v2.ibs	
[File rev]	 1.0	
[Date]	 Jun 15,2021	
[Spice type]	 Hspice	
[Waveform nPoints]	 300	
[Temperature Range]	 27C	 27C	 27C	
[Voltage Range]	 1.8V	 1.7V	 1.9V	
[C_comp]	 0.468pF	 NA	 NA	 	 	 	 	
[Rload]	 50 ohms	
[Sim time]	 1.7ns	
[Vil]	 0V	 NA	 NA	
[Vih]	 1.8V	 NA	 NA	
[Tr]	 5ps	 NA	 NA	
[Tf]	 5ps	 NA	 NA	
[Spice Subckt]	 invchain	
[Component]	 invchain	
[Spice file]	 invchain_top.sp	
[Pin]	
PAD	 VOUT8	 PAD	 driver3	 	 	 	
-> IN   
IN	 VIN	 IN	 dummy	 	 	 	
VCCQ	 vccq	 VCCQ	 Power	 	 	 	
VSSQ	 vssq	 VSSQ	 Gnd	 	 	 	
[Model]	 driver3	
[Model type]	 Output	
[Polarity]	 Non-Inverting	
[Vmeas]	 0.9V	 	 	
[Model file]	 invchain_subckt_typ.sp	 invchain_subckt_slow.sp	 invchain_subckt_fast.sp	
[Rising Waveform]	 50ohm	 1.8V	 1.7V	 1.9V	 NA	 NA	 NA	 NA	 NA	
[Rising Waveform]	 50ohm	 0V	 0V	 0V	 NA	 NA	 NA	 NA	 NA	
[Falling Waveform]	 50ohm	 1.8V	 1.7V	 1.9V	 NA	 NA	 NA	 NA	 NA	
[Falling Waveform]	 50ohm	 0V	 0V	 0V	 NA	 NA	 NA	 NA	 NA	
[Model]	 dummy	
[NoModel]
[Model type]	 Input	
